
 displacements (vx,vy,vz)

    1  4.8405E-02  3.2704E-03 -9.0528E-02
    2  4.7540E-02  4.7758E-03 -9.0477E-02
    3  5.7701E-02  1.7385E-02 -8.9680E-02
    4  5.8515E-02  1.6408E-02 -8.9846E-02
    5  4.9013E-02  4.4863E-03 -7.1472E-02
    6  4.8327E-02  6.3389E-03 -7.1369E-02
    7  5.8090E-02  1.5335E-02 -6.9866E-02
    8  5.8660E-02  1.4022E-02 -7.0121E-02
    9  4.7972E-02  4.0228E-03 -9.0502E-02
   10  5.2460E-02  1.1227E-02 -9.0329E-02
   11  5.8107E-02  1.6896E-02 -8.9762E-02
   12  5.3262E-02  1.0007E-02 -9.0457E-02
   13  4.8727E-02  3.8853E-03 -8.0998E-02
   14  4.7950E-02  5.5636E-03 -8.0924E-02
   15  5.7896E-02  1.6353E-02 -7.9780E-02
   16  5.8588E-02  1.5212E-02 -7.9990E-02
   17  4.8667E-02  5.4121E-03 -7.1422E-02
   18  5.3085E-02  1.1013E-02 -7.0785E-02
   19  5.8376E-02  1.4680E-02 -6.9995E-02
   20  5.3692E-02  9.3609E-03 -7.0989E-02
   21  4.6681E-02  6.2834E-03 -9.0426E-02
   22  5.6886E-02  1.8358E-02 -8.9509E-02
   23  4.7664E-02  8.1972E-03 -7.1257E-02
   24  5.7522E-02  1.6645E-02 -6.9610E-02
   25  4.7109E-02  5.5284E-03 -9.0452E-02
   26  5.1663E-02  1.2450E-02 -9.0200E-02
   27  5.7294E-02  1.7871E-02 -8.9595E-02
   28  4.7187E-02  7.2475E-03 -8.0851E-02
   29  5.7206E-02  1.7495E-02 -7.9573E-02
   30  4.7993E-02  7.2682E-03 -7.1313E-02
   31  5.2484E-02  1.2653E-02 -7.0571E-02
   32  5.7806E-02  1.5991E-02 -6.9738E-02
   33  4.9719E-02  4.8654E-03 -5.2710E-02
   34  4.9259E-02  7.0727E-03 -5.2422E-02
   35  5.8693E-02  1.2574E-02 -5.0191E-02
   36  5.9033E-02  1.0889E-02 -5.0597E-02
   37  4.9313E-02  4.8480E-03 -6.2050E-02
   38  4.8749E-02  6.8826E-03 -6.1845E-02
   39  5.8333E-02  1.4138E-02 -5.9971E-02
   40  5.8794E-02  1.2666E-02 -6.0312E-02
   41  4.9490E-02  5.9714E-03 -5.2562E-02
   42  5.3920E-02  9.9844E-03 -5.1405E-02
   43  5.8860E-02  1.1727E-02 -5.0384E-02
   44  5.4370E-02  7.9381E-03 -5.1826E-02
   45  4.8799E-02  9.2659E-03 -5.2093E-02
   46  5.8339E-02  1.4204E-02 -4.9708E-02
   47  4.8194E-02  8.9099E-03 -6.1640E-02
   48  5.7876E-02  1.5601E-02 -5.9630E-02
   49  4.9026E-02  8.1679E-03 -5.2259E-02
   50  5.3490E-02  1.2024E-02 -5.0949E-02
   51  5.8516E-02  1.3388E-02 -4.9948E-02
   52  5.0140E-02  5.5457E-03 -3.3354E-02
   53  4.9548E-02  8.1274E-03 -3.3546E-02
   54  5.7674E-02  1.0483E-02 -3.0500E-02
   55  5.7874E-02  8.1736E-03 -3.0404E-02
   56  4.9952E-02  4.8468E-03 -4.3212E-02
   57  4.9594E-02  7.2246E-03 -4.2963E-02
   58  5.8712E-02  1.0953E-02 -4.0437E-02
   59  5.9010E-02  9.1987E-03 -4.0836E-02
   60  4.9839E-02  6.8289E-03 -3.3461E-02
   61  5.3631E-02  9.5052E-03 -3.2029E-02
   62  5.7789E-02  9.3351E-03 -3.0485E-02
   63  5.3929E-02  6.7253E-03 -3.1790E-02
   64  4.9095E-02  1.0780E-02 -3.3572E-02
   65  5.7412E-02  1.2750E-02 -3.0351E-02
   66  4.9261E-02  9.6366E-03 -4.2769E-02
   67  5.8416E-02  1.2788E-02 -4.0129E-02
   68  4.9316E-02  9.4497E-03 -3.3559E-02
   69  5.3245E-02  1.2195E-02 -3.1950E-02
   70  5.7548E-02  1.1617E-02 -3.0435E-02
   71  6.7737E-02  2.9714E-02 -8.6887E-02
   72  6.8586E-02  2.9282E-02 -8.7017E-02
   73  6.7811E-02  2.4035E-02 -6.6948E-02
   74  6.8321E-02  2.3380E-02 -6.7168E-02
   75  6.2818E-02  2.3530E-02 -8.8539E-02
   76  6.8161E-02  2.9498E-02 -8.6952E-02
   77  6.3604E-02  2.2871E-02 -8.8700E-02
   78  6.7787E-02  2.6865E-02 -7.6945E-02
   79  6.8470E-02  2.6320E-02 -7.7119E-02
   80  6.2995E-02  1.9727E-02 -6.8545E-02
   81  6.8066E-02  2.3708E-02 -6.7058E-02
   82  6.3511E-02  1.8723E-02 -6.8795E-02
   83  6.6888E-02  3.0145E-02 -8.6755E-02
   84  6.7299E-02  2.4696E-02 -6.6734E-02
   85  6.2030E-02  2.4190E-02 -8.8379E-02
   86  6.7312E-02  2.9929E-02 -8.6821E-02
   87  6.7104E-02  2.7411E-02 -7.6772E-02
   88  6.2479E-02  2.0721E-02 -6.8290E-02
   89  6.7555E-02  2.4366E-02 -6.6841E-02
   90  6.7961E-02  1.7671E-02 -4.6947E-02
   91  6.8147E-02  1.6804E-02 -4.7323E-02
   92  6.7854E-02  2.1066E-02 -5.6888E-02
   93  6.8224E-02  2.0302E-02 -5.7164E-02
   94  6.3365E-02  1.5201E-02 -4.8717E-02
   95  6.8054E-02  1.7236E-02 -4.7135E-02
   96  6.3619E-02  1.3901E-02 -4.9166E-02
   97  6.7766E-02  1.8530E-02 -4.6563E-02
   98  6.7489E-02  2.1824E-02 -5.6606E-02
   99  6.3094E-02  1.6484E-02 -4.8253E-02
  100  6.7862E-02  1.8099E-02 -4.6755E-02
  101  6.5280E-02  1.3313E-02 -2.7511E-02
  102  6.5020E-02  1.2033E-02 -2.7910E-02
  103  6.7465E-02  1.4908E-02 -3.7019E-02
  104  6.7611E-02  1.3887E-02 -3.7284E-02
  105  6.1439E-02  1.1940E-02 -2.8936E-02
  106  6.5150E-02  1.2677E-02 -2.7709E-02
  107  6.1509E-02  9.9395E-03 -2.8969E-02
  108  6.5446E-02  1.4548E-02 -2.7130E-02
  109  6.7323E-02  1.5946E-02 -3.6771E-02
  110  6.1314E-02  1.3835E-02 -2.8686E-02
  111  6.5370E-02  1.3934E-02 -2.7317E-02
  112  2.5719E-02 -2.6421E-02 -8.6077E-02
  113  2.5133E-02 -2.4103E-02 -8.7115E-02
  114  3.3631E-02 -1.5335E-02 -8.8324E-02
  115  3.4482E-02 -1.7396E-02 -8.7709E-02
  116  2.1937E-02 -2.0010E-02 -7.2333E-02
  117  2.1234E-02 -1.7313E-02 -7.3480E-02
  118  3.0773E-02 -9.8962E-03 -7.2673E-02
  119  3.1659E-02 -1.2440E-02 -7.1938E-02
  120  2.5427E-02 -2.5262E-02 -8.6594E-02
  121  2.9639E-02 -1.9938E-02 -8.7564E-02
  122  3.4055E-02 -1.6367E-02 -8.8016E-02
  123  3.0401E-02 -2.2142E-02 -8.6736E-02
  124  2.3881E-02 -2.3186E-02 -7.9213E-02
  125  2.3226E-02 -2.0684E-02 -8.0304E-02
  126  3.2247E-02 -1.2589E-02 -8.0503E-02
  127  3.3123E-02 -1.4882E-02 -7.9819E-02
  128  2.1587E-02 -1.8664E-02 -7.2907E-02
  129  2.6143E-02 -1.3746E-02 -7.2940E-02
  130  3.1214E-02 -1.1169E-02 -7.2310E-02
  131  2.6976E-02 -1.6380E-02 -7.1984E-02
  132  2.4531E-02 -2.1787E-02 -8.8155E-02
  133  3.2793E-02 -1.3275E-02 -8.8935E-02
  134  2.0508E-02 -1.4612E-02 -7.4630E-02
  135  2.9900E-02 -7.3538E-03 -7.3395E-02
  136  2.4833E-02 -2.2945E-02 -8.7635E-02
  137  2.8864E-02 -1.7733E-02 -8.8387E-02
  138  3.3212E-02 -1.4306E-02 -8.8631E-02
  139  2.2557E-02 -1.8180E-02 -8.1402E-02
  140  3.1383E-02 -1.0292E-02 -8.1178E-02
  141  2.0879E-02 -1.5961E-02 -7.4054E-02
  142  2.5315E-02 -1.1117E-02 -7.3893E-02
  143  3.0334E-02 -8.6224E-03 -7.3034E-02
  144  1.7718E-02 -1.4004E-02 -5.8617E-02
  145  1.6970E-02 -1.0869E-02 -5.9759E-02
  146  2.7684E-02 -5.1101E-03 -5.6980E-02
  147  2.8537E-02 -8.1967E-03 -5.6324E-02
  148  1.9883E-02 -1.6918E-02 -6.5475E-02
  149  1.9143E-02 -1.4010E-02 -6.6633E-02
  150  2.9231E-02 -7.3585E-03 -6.4841E-02
  151  3.0113E-02 -1.0167E-02 -6.4117E-02
  152  1.7340E-02 -1.2434E-02 -5.9192E-02
  153  2.2340E-02 -8.0750E-03 -5.8257E-02
  154  2.8104E-02 -6.6542E-03 -5.6652E-02
  155  2.3157E-02 -1.1225E-02 -5.7328E-02
  156  1.6178E-02 -7.7511E-03 -6.0839E-02
  157  2.6879E-02 -2.0779E-03 -5.7632E-02
  158  1.8419E-02 -1.1105E-02 -6.7780E-02
  159  2.8380E-02 -4.5580E-03 -6.5536E-02
  160  1.6553E-02 -9.3101E-03 -6.0296E-02
  161  2.1464E-02 -4.9376E-03 -5.9145E-02
  162  2.7283E-02 -3.5966E-03 -5.7316E-02
  163  1.3265E-02 -8.9906E-03 -4.4706E-02
  164  1.2344E-02 -5.3281E-03 -4.6002E-02
  165  2.4434E-02 -1.0671E-03 -4.1447E-02
  166  2.5096E-02 -4.6334E-03 -4.0549E-02
  167  1.5467E-02 -1.1366E-02 -5.1760E-02
  168  1.4645E-02 -7.9836E-03 -5.2778E-02
  169  2.6112E-02 -3.1752E-03 -4.9155E-02
  170  2.6922E-02 -6.5027E-03 -4.8488E-02
  171  1.2840E-02 -7.1557E-03 -4.5345E-02
  172  1.8286E-02 -3.3057E-03 -4.3683E-02
  173  2.4775E-02 -2.8455E-03 -4.0989E-02
  174  1.9062E-02 -6.8866E-03 -4.2490E-02
  175  1.0737E-02 -1.7301E-03 -4.7323E-02
  176  2.3578E-02  2.4239E-03 -4.2456E-02
  177  1.3829E-02 -4.6236E-03 -5.3864E-02
  178  2.5259E-02  2.0569E-04 -4.9821E-02
  179  1.1602E-02 -3.5190E-03 -4.6680E-02
  180  1.7341E-02  1.5760E-04 -4.4928E-02
  181  2.4006E-02  6.8202E-04 -4.1939E-02
  182  4.0729E-02 -5.3928E-03 -8.9922E-02
  183  4.1549E-02 -7.1420E-03 -8.9689E-02
  184  3.9585E-02 -1.7730E-03 -7.2312E-02
  185  4.0382E-02 -4.0315E-03 -7.2049E-02
  186  3.7277E-02 -1.0444E-02 -8.9173E-02
  187  4.1135E-02 -6.2694E-03 -8.9805E-02
  188  3.8121E-02 -1.2346E-02 -8.8757E-02
  189  4.0196E-02 -3.5685E-03 -8.1118E-02
  190  4.1012E-02 -5.5673E-03 -8.0860E-02
  191  3.5220E-02 -5.8675E-03 -7.2514E-02
  192  3.9980E-02 -2.9018E-03 -7.2183E-02
  193  3.6075E-02 -8.2854E-03 -7.2021E-02
  194  3.9928E-02 -3.6335E-03 -9.0155E-02
  195  3.8817E-02  4.8560E-04 -7.2565E-02
  196  3.6450E-02 -8.5349E-03 -8.9584E-02
  197  4.0325E-02 -4.5149E-03 -9.0039E-02
  198  3.9407E-02 -1.5634E-03 -8.1368E-02
  199  3.4393E-02 -3.4526E-03 -7.2994E-02
  200  3.9197E-02 -6.4329E-04 -7.2438E-02
  201  3.8372E-02  1.0704E-03 -5.4745E-02
  202  3.9115E-02 -1.7114E-03 -5.4668E-02
  203  3.8960E-02 -1.7880E-04 -6.3521E-02
  204  3.9743E-02 -2.7028E-03 -6.3332E-02
  205  3.3031E-02 -2.0412E-03 -5.5840E-02
  206  3.8735E-02 -3.2094E-04 -5.4708E-02
  207  3.3860E-02 -5.0032E-03 -5.5478E-02
  208  3.7638E-02  3.8407E-03 -5.4847E-02
  209  3.8215E-02  2.3363E-03 -6.3698E-02
  210  3.2215E-02  8.9359E-04 -5.6209E-02
  211  3.8000E-02  2.4572E-03 -5.4803E-02
  212  3.6961E-02  3.5843E-03 -3.7562E-02
  213  3.7548E-02  2.8882E-04 -3.7335E-02
  214  3.7710E-02  2.1994E-03 -4.6092E-02
  215  3.8405E-02 -8.5066E-04 -4.5897E-02
  216  3.0625E-02  1.2486E-03 -3.9428E-02
  217  3.7264E-02  1.9392E-03 -3.7438E-02
  218  3.1269E-02 -2.2378E-03 -3.8863E-02
  219  3.6266E-02  6.8571E-03 -3.7895E-02
  220  3.7049E-02  5.2526E-03 -4.6245E-02
  221  2.9861E-02  4.6648E-03 -4.0097E-02
  222  3.6624E-02  5.2226E-03 -3.7716E-02
  223  4.4120E-02 -2.8927E-04 -9.0403E-02
  224  4.4933E-02 -1.9017E-03 -9.0321E-02
  225  4.3942E-02  2.3070E-03 -7.1964E-02
  226  4.4672E-02  2.3961E-04 -7.1909E-02
  227  4.3326E-02  1.3307E-03 -9.0482E-02
  228  4.3240E-02  4.3774E-03 -7.2019E-02
  229  4.3759E-02  4.1571E-03 -5.3631E-02
  230  4.4374E-02  1.6145E-03 -5.3738E-02
  231  4.3168E-02  6.6866E-03 -5.3487E-02
  232  4.3320E-02  5.8890E-03 -3.5634E-02
  233  4.3907E-02  2.8874E-03 -3.5601E-02
  234  4.2706E-02  8.9043E-03 -3.5735E-02
  235  8.5539E-03 -3.7533E-02 -8.9293E-02
  236  8.2686E-03 -3.5722E-02 -9.0388E-02
  237  1.3858E-02 -3.2009E-02 -8.8525E-02
  238  1.4269E-02 -3.4014E-02 -8.7354E-02
  239  2.6144E-03 -3.1175E-02 -7.9785E-02
  240  2.2172E-03 -2.9089E-02 -8.1107E-02
  241  8.2794E-03 -2.5305E-02 -7.7718E-02
  242  8.8062E-03 -2.7604E-02 -7.6413E-02
  243  8.4134E-03 -3.6627E-02 -8.9837E-02
  244  1.1023E-02 -3.3829E-02 -8.9375E-02
  245  1.4066E-02 -3.3012E-02 -8.7937E-02
  246  1.1375E-02 -3.5749E-02 -8.8220E-02
  247  5.5898E-03 -3.4358E-02 -8.4577E-02
  248  5.2413E-03 -3.2409E-02 -8.5781E-02
  249  1.1081E-02 -2.8652E-02 -8.3151E-02
  250  1.1559E-02 -3.0803E-02 -8.1917E-02
  251  2.4152E-03 -3.0135E-02 -8.0445E-02
  252  5.1957E-03 -2.7192E-02 -7.9321E-02
  253  8.5427E-03 -2.6457E-02 -7.7065E-02
  254  5.6616E-03 -2.9391E-02 -7.7992E-02
  255  7.9686E-03 -3.3903E-02 -9.1501E-02
  256  1.3434E-02 -2.9996E-02 -8.9710E-02
  257  1.8089E-03 -2.6997E-02 -8.2444E-02
  258  7.7381E-03 -2.2993E-02 -7.9032E-02
  259  8.1188E-03 -3.4812E-02 -9.0941E-02
  260  1.0652E-02 -3.1907E-02 -9.0548E-02
  261  1.3646E-02 -3.1001E-02 -8.9113E-02
  262  4.8825E-03 -3.0454E-02 -8.7005E-02
  263  1.0591E-02 -2.6493E-02 -8.4402E-02
  264  2.0183E-03 -2.8045E-02 -8.1776E-02
  265  4.7285E-03 -2.4974E-02 -8.0655E-02
  266  8.0141E-03 -2.4153E-02 -7.8378E-02
  267 -3.4668E-03 -2.4875E-02 -7.0109E-02
  268 -3.9546E-03 -2.2494E-02 -7.1667E-02
  269  2.5082E-03 -1.8688E-02 -6.6767E-02
  270  3.1147E-03 -2.1319E-02 -6.5355E-02
  271 -4.0172E-04 -2.8004E-02 -7.4959E-02
  272 -8.4353E-04 -2.5769E-02 -7.6399E-02
  273  5.4148E-03 -2.1961E-02 -7.2256E-02
  274  5.9886E-03 -2.4427E-02 -7.0897E-02
  275 -3.7067E-03 -2.3683E-02 -7.0890E-02
  276 -7.9769E-04 -2.0608E-02 -6.9109E-02
  277  2.8161E-03 -2.0001E-02 -6.6060E-02
  278 -2.5434E-04 -2.3125E-02 -6.7629E-02
  279 -4.4705E-03 -2.0073E-02 -7.3177E-02
  280  1.8876E-03 -1.6019E-02 -6.8113E-02
  281 -1.2779E-03 -2.3524E-02 -7.7845E-02
  282  4.8508E-03 -1.9490E-02 -7.3621E-02
  283 -4.2315E-03 -2.1274E-02 -7.2408E-02
  284 -1.4008E-03 -1.8084E-02 -7.0552E-02
  285  2.1756E-03 -1.7342E-02 -6.7420E-02
  286 -9.5611E-03 -1.9449E-02 -6.0181E-02
  287 -1.0319E-02 -1.6684E-02 -6.1886E-02
  288 -3.3717E-03 -1.2943E-02 -5.5386E-02
  289 -2.5946E-03 -1.6018E-02 -5.3962E-02
  290 -6.5063E-03 -2.1950E-02 -6.5270E-02
  291 -7.1803E-03 -1.9356E-02 -6.6782E-02
  292 -5.0263E-04 -1.5604E-02 -6.1092E-02
  293  2.7510E-04 -1.8436E-02 -5.9788E-02
  294 -9.9372E-03 -1.8072E-02 -6.1045E-02
  295 -6.8947E-03 -1.4829E-02 -5.8533E-02
  296 -2.9869E-03 -1.4488E-02 -5.4683E-02
  297 -6.1657E-03 -1.7756E-02 -5.6959E-02
  298 -1.1567E-02 -1.3908E-02 -6.3315E-02
  299 -4.4791E-03 -9.6714E-03 -5.6342E-02
  300 -7.8773E-03 -1.6844E-02 -6.8295E-02
  301 -1.2796E-03 -1.2801E-02 -6.2439E-02
  302 -1.0881E-02 -1.5307E-02 -6.2651E-02
  303 -7.8792E-03 -1.1689E-02 -5.9670E-02
  304 -3.8547E-03 -1.1342E-02 -5.5940E-02
  305  1.9606E-02 -2.8310E-02 -8.7384E-02
  306  2.0113E-02 -3.0457E-02 -8.6264E-02
  307  1.4684E-02 -2.1444E-02 -7.5136E-02
  308  1.5310E-02 -2.3926E-02 -7.3920E-02
  309  1.6734E-02 -3.0191E-02 -8.7855E-02
  310  1.9861E-02 -2.9384E-02 -8.6822E-02
  311  1.7195E-02 -3.2269E-02 -8.6700E-02
  312  1.7174E-02 -2.4863E-02 -8.1277E-02
  313  1.7751E-02 -2.7176E-02 -8.0115E-02
  314  1.1450E-02 -2.3396E-02 -7.6320E-02
  315  1.5000E-02 -2.2687E-02 -7.4527E-02
  316  1.2030E-02 -2.5788E-02 -7.5058E-02
  317  1.9077E-02 -2.6155E-02 -8.8508E-02
  318  1.4040E-02 -1.8954E-02 -7.6363E-02
  319  1.6251E-02 -2.8107E-02 -8.9021E-02
  320  1.9343E-02 -2.7231E-02 -8.7940E-02
  321  1.6585E-02 -2.2545E-02 -8.2456E-02
  322  1.0860E-02 -2.0993E-02 -7.7589E-02
  323  1.4369E-02 -2.0202E-02 -7.5755E-02
  324  9.4791E-03 -1.4763E-02 -6.2777E-02
  325  1.0205E-02 -1.7609E-02 -6.1490E-02
  326  1.2112E-02 -1.8054E-02 -6.8972E-02
  327  1.2804E-02 -2.0720E-02 -6.7724E-02
  328  5.9315E-03 -1.6742E-02 -6.4646E-02
  329  9.8382E-03 -1.6184E-02 -6.2136E-02
  330  6.6071E-03 -1.9474E-02 -6.3298E-02
  331  8.6818E-03 -1.1861E-02 -6.3953E-02
  332  1.1416E-02 -1.5388E-02 -7.0214E-02
  333  5.2006E-03 -1.3965E-02 -6.5919E-02
  334  9.0596E-03 -1.3300E-02 -6.3334E-02
  335  3.9616E-03 -8.9622E-03 -5.0029E-02
  336  4.9369E-03 -1.2361E-02 -4.8804E-02
  337  6.6670E-03 -1.1583E-02 -5.6408E-02
  338  7.5541E-03 -1.4671E-02 -5.5281E-02
  339  2.1784E-04 -1.0944E-02 -5.2563E-02
  340  4.4651E-03 -1.0668E-02 -4.9430E-02
  341  1.1184E-03 -1.4182E-02 -5.1246E-02
  342  2.4591E-03 -5.4237E-03 -5.0740E-02
  343  5.8427E-03 -8.5719E-03 -5.7636E-02
  344 -1.0980E-03 -7.5409E-03 -5.3328E-02
  345  3.2901E-03 -7.2074E-03 -5.0491E-02
  346  2.2424E-02 -2.6294E-02 -8.7130E-02
  347  2.2971E-02 -2.8521E-02 -8.6058E-02
  348  1.7957E-02 -1.9435E-02 -7.4184E-02
  349  1.8625E-02 -2.2012E-02 -7.3009E-02
  350  2.1855E-02 -2.4069E-02 -8.8213E-02
  351  1.7266E-02 -1.6842E-02 -7.5353E-02
  352  1.3149E-02 -1.2757E-02 -6.1158E-02
  353  1.3888E-02 -1.5749E-02 -5.9949E-02
  354  1.2351E-02 -9.7801E-03 -6.2351E-02
  355  7.9605E-03 -7.0924E-03 -4.7852E-02
  356  8.9640E-03 -1.0597E-02 -4.6636E-02
  357  6.3485E-03 -3.4625E-03 -4.8508E-02
  358 -8.1396E-03 -4.8154E-02 -1.0016E-01
  359 -7.7671E-03 -4.6606E-02 -1.0063E-01
  360 -5.6085E-05 -4.1090E-02 -9.4801E-02
  361 -1.3638E-04 -4.2841E-02 -9.3898E-02
  362 -1.4604E-02 -4.2817E-02 -9.4923E-02
  363 -1.4305E-02 -4.1002E-02 -9.5528E-02
  364 -6.4330E-03 -3.4994E-02 -8.7626E-02
  365 -6.4412E-03 -3.6958E-02 -8.6609E-02
  366 -7.9524E-03 -4.7378E-02 -1.0039E-01
  367 -4.0252E-03 -4.3733E-02 -9.7611E-02
  368 -9.4400E-05 -4.1965E-02 -9.4346E-02
  369 -4.2439E-03 -4.5481E-02 -9.6840E-02
  370 -1.1366E-02 -4.5439E-02 -9.7575E-02
  371 -1.1016E-02 -4.3758E-02 -9.8114E-02
  372 -3.2416E-03 -3.8029E-02 -9.1243E-02
  373 -3.2861E-03 -3.9888E-02 -9.0284E-02
  374 -1.4452E-02 -4.1908E-02 -9.5223E-02
  375 -1.0500E-02 -3.7844E-02 -9.1497E-02
  376 -6.4360E-03 -3.5977E-02 -8.7116E-02
  377 -1.0652E-02 -3.9749E-02 -9.0654E-02
  378 -7.3979E-03 -4.5069E-02 -1.0114E-01
  379  1.4113E-05 -3.9339E-02 -9.5725E-02
  380 -1.4007E-02 -3.9205E-02 -9.6152E-02
  381 -6.4300E-03 -3.3025E-02 -8.8656E-02
  382 -7.5847E-03 -4.5836E-02 -1.0088E-01
  383 -3.8130E-03 -4.1988E-02 -9.8406E-02
  384 -2.3448E-05 -4.0214E-02 -9.5259E-02
  385 -1.0670E-02 -4.2090E-02 -9.8680E-02
  386 -3.2020E-03 -3.6167E-02 -9.2223E-02
  387 -1.4153E-02 -4.0103E-02 -9.5838E-02
  388 -1.0357E-02 -3.5946E-02 -9.2350E-02
  389 -6.4259E-03 -3.4013E-02 -8.8143E-02
  390 -2.0994E-02 -3.7977E-02 -8.9190E-02
  391 -2.0901E-02 -3.5868E-02 -8.9932E-02
  392 -1.2808E-02 -2.9114E-02 -8.0222E-02
  393 -1.2716E-02 -3.1301E-02 -7.9077E-02
  394 -1.7800E-02 -4.0323E-02 -9.2139E-02
  395 -1.7598E-02 -3.8359E-02 -9.2815E-02
  396 -9.6253E-03 -3.2010E-02 -8.3952E-02
  397 -9.5854E-03 -3.4091E-02 -8.2871E-02
  398 -2.0950E-02 -3.6916E-02 -8.9558E-02
  399 -1.6972E-02 -3.2297E-02 -8.5020E-02
  400 -1.2754E-02 -3.0205E-02 -7.9648E-02
  401 -1.6989E-02 -3.4371E-02 -8.4104E-02
  402 -2.0824E-02 -3.3793E-02 -9.0685E-02
  403 -1.2943E-02 -2.6906E-02 -8.1354E-02
  404 -1.7403E-02 -3.6424E-02 -9.3511E-02
  405 -9.6732E-03 -2.9934E-02 -8.5043E-02
  406 -2.0876E-02 -3.4821E-02 -9.0303E-02
  407 -1.6980E-02 -3.0225E-02 -8.5918E-02
  408 -1.2900E-02 -2.8000E-02 -8.0776E-02
  409 -2.7544E-02 -3.3921E-02 -8.2782E-02
  410 -2.7449E-02 -3.1532E-02 -8.3556E-02
  411 -1.9286E-02 -2.3995E-02 -7.2403E-02
  412 -1.8921E-02 -2.6506E-02 -7.1270E-02
  413 -2.4146E-02 -3.5855E-02 -8.5997E-02
  414 -2.4208E-02 -3.3597E-02 -8.6840E-02
  415 -1.6055E-02 -2.6323E-02 -7.6366E-02
  416 -1.5792E-02 -2.8686E-02 -7.5237E-02
  417 -2.7494E-02 -3.2735E-02 -8.3178E-02
  418 -2.3462E-02 -2.7513E-02 -7.7939E-02
  419 -1.9105E-02 -2.5256E-02 -7.1844E-02
  420 -2.3348E-02 -2.9825E-02 -7.7051E-02
  421 -2.7700E-02 -2.9030E-02 -8.4138E-02
  422 -2.0067E-02 -2.1365E-02 -7.3218E-02
  423 -2.4277E-02 -3.1354E-02 -8.7689E-02
  424 -1.6338E-02 -2.4007E-02 -7.7509E-02
  425 -2.7514E-02 -3.0296E-02 -8.3866E-02
  426 -2.3942E-02 -2.5097E-02 -7.8580E-02
  427 -1.9589E-02 -2.2699E-02 -7.2858E-02
  428  4.0658E-03 -3.8482E-02 -9.2327E-02
  429  4.1368E-03 -4.0209E-02 -9.1360E-02
  430 -2.1838E-03 -3.2158E-02 -8.4100E-02
  431 -2.0126E-03 -3.4170E-02 -8.2927E-02
  432  3.9839E-03 -3.6756E-02 -9.3316E-02
  433 -2.3649E-03 -3.0133E-02 -8.5288E-02
  434 -8.4599E-03 -2.5911E-02 -7.5692E-02
  435 -8.1755E-03 -2.8233E-02 -7.4327E-02
  436 -8.7838E-03 -2.3578E-02 -7.7033E-02
  437 -1.4931E-02 -2.0565E-02 -6.7022E-02
  438 -1.4301E-02 -2.3243E-02 -6.5475E-02
  439 -1.5940E-02 -1.7722E-02 -6.8281E-02
  440 -2.0625E-02 -5.9335E-02 -1.1262E-01
  441 -2.0596E-02 -5.8612E-02 -1.1287E-01
  442 -1.4421E-02 -5.2338E-02 -1.0684E-01
  443 -1.4600E-02 -5.3515E-02 -1.0652E-01
  444 -2.7822E-02 -5.7714E-02 -1.1151E-01
  445 -2.7747E-02 -5.6766E-02 -1.1173E-01
  446 -2.1236E-02 -4.8469E-02 -1.0355E-01
  447 -2.1347E-02 -4.9860E-02 -1.0321E-01
  448 -2.0610E-02 -5.8973E-02 -1.1275E-01
  449 -1.7556E-02 -5.5311E-02 -1.1004E-01
  450 -1.4511E-02 -5.2925E-02 -1.0668E-01
  451 -1.7608E-02 -5.6335E-02 -1.0971E-01
  452 -2.4216E-02 -5.8477E-02 -1.1213E-01
  453 -2.4159E-02 -5.7644E-02 -1.1237E-01
  454 -1.7819E-02 -5.0333E-02 -1.0526E-01
  455 -1.7980E-02 -5.1618E-02 -1.0493E-01
  456 -2.7783E-02 -5.7240E-02 -1.1162E-01
  457 -2.4573E-02 -5.2415E-02 -1.0778E-01
  458 -2.1290E-02 -4.9163E-02 -1.0338E-01
  459 -2.4602E-02 -5.3641E-02 -1.0748E-01
  460 -2.0574E-02 -5.7891E-02 -1.1313E-01
  461 -1.4240E-02 -5.1168E-02 -1.0718E-01
  462 -2.7687E-02 -5.5818E-02 -1.1195E-01
  463 -2.1130E-02 -4.7091E-02 -1.0390E-01
  464 -2.0586E-02 -5.8252E-02 -1.1300E-01
  465 -1.7507E-02 -5.4290E-02 -1.1037E-01
  466 -1.4333E-02 -5.1753E-02 -1.0701E-01
  467 -2.4104E-02 -5.6813E-02 -1.1261E-01
  468 -1.7658E-02 -4.9057E-02 -1.0560E-01
  469 -2.7714E-02 -5.6291E-02 -1.1184E-01
  470 -2.4554E-02 -5.1202E-02 -1.0808E-01
  471 -2.1180E-02 -4.7778E-02 -1.0373E-01
  472 -3.5042E-02 -5.6600E-02 -1.0932E-01
  473 -3.5067E-02 -5.5414E-02 -1.0949E-01
  474 -2.8085E-02 -4.5214E-02 -9.9370E-02
  475 -2.7951E-02 -4.6806E-02 -9.8992E-02
  476 -3.1442E-02 -5.7073E-02 -1.1066E-01
  477 -3.1410E-02 -5.6012E-02 -1.1084E-01
  478 -2.4658E-02 -4.6749E-02 -1.0162E-01
  479 -2.4657E-02 -4.8245E-02 -1.0126E-01
  480 -3.5052E-02 -5.6001E-02 -1.0940E-01
  481 -3.1606E-02 -5.0094E-02 -1.0443E-01
  482 -2.8021E-02 -4.6005E-02 -9.9178E-02
  483 -3.1440E-02 -5.1537E-02 -1.0417E-01
  484 -3.5135E-02 -5.4249E-02 -1.0965E-01
  485 -2.8230E-02 -4.3652E-02 -9.9756E-02
  486 -3.1385E-02 -5.4969E-02 -1.1103E-01
  487 -2.4666E-02 -4.5277E-02 -1.0199E-01
  488 -3.5108E-02 -5.4828E-02 -1.0956E-01
  489 -3.1803E-02 -4.8660E-02 -1.0468E-01
  490 -2.8165E-02 -4.4430E-02 -9.9558E-02
  491 -4.1832E-02 -5.6273E-02 -1.0405E-01
  492 -4.2341E-02 -5.4753E-02 -1.0448E-01
  493 -3.4921E-02 -4.2617E-02 -9.3951E-02
  494 -3.4633E-02 -4.4403E-02 -9.3446E-02
  495 -3.8478E-02 -5.6256E-02 -1.0719E-01
  496 -3.8775E-02 -5.4974E-02 -1.0742E-01
  497 -3.1501E-02 -4.3863E-02 -9.6731E-02
  498 -3.1199E-02 -4.5555E-02 -9.6268E-02
  499 -4.2095E-02 -5.5517E-02 -1.0427E-01
  500 -3.8618E-02 -4.8418E-02 -9.9286E-02
  501 -3.4770E-02 -4.3514E-02 -9.3696E-02
  502 -3.8227E-02 -5.0031E-02 -9.8924E-02
  503 -4.2962E-02 -5.3123E-02 -1.0476E-01
  504 -3.5414E-02 -4.0794E-02 -9.4346E-02
  505 -3.8988E-02 -5.3712E-02 -1.0766E-01
  506 -3.1779E-02 -4.2184E-02 -9.7222E-02
  507 -4.2627E-02 -5.3938E-02 -1.0463E-01
  508 -3.9225E-02 -4.6805E-02 -9.9571E-02
  509 -3.5135E-02 -4.1702E-02 -9.4154E-02
  510 -1.1219E-02 -4.9475E-02 -1.0356E-01
  511 -1.1506E-02 -5.0847E-02 -1.0317E-01
  512 -1.7910E-02 -4.4685E-02 -9.9356E-02
  513 -1.8126E-02 -4.6240E-02 -9.8928E-02
  514 -1.0934E-02 -4.8112E-02 -1.0396E-01
  515 -1.7698E-02 -4.3146E-02 -9.9800E-02
  516 -2.4650E-02 -4.0492E-02 -9.4441E-02
  517 -2.4670E-02 -4.2228E-02 -9.3947E-02
  518 -2.4640E-02 -3.8779E-02 -9.4936E-02
  519 -3.1420E-02 -3.6895E-02 -8.8715E-02
  520 -3.1438E-02 -3.8809E-02 -8.8135E-02
  521 -3.1656E-02 -3.4933E-02 -8.9191E-02
  522  9.3643E-02  3.7497E-03 -2.4702E-02
  523  9.1863E-02  1.6560E-03 -2.6056E-02
  524  6.5881E-02  9.5426E-03 -1.8319E-02
  525  9.2758E-02 -9.0562E-04 -1.8410E-02
  526  9.1256E-02 -2.2612E-03 -1.9425E-02
  527  6.5653E-02  8.5282E-03 -1.8790E-02
  528  7.9410E-02  1.1479E-02 -2.6315E-02
  529  9.2729E-02  2.7165E-03 -2.5396E-02
  530  7.8572E-02  9.8884E-03 -2.7116E-02
  531  6.5784E-02  1.2123E-02 -2.2661E-02
  532  9.3207E-02  1.4981E-03 -2.1699E-02
  533  9.1560E-02 -2.8694E-04 -2.2826E-02
  534  6.5571E-02  1.1040E-02 -2.3130E-02
  535  7.9281E-02  6.9264E-03 -1.8020E-02
  536  9.1987E-02 -1.5708E-03 -1.8922E-02
  537  7.8605E-02  5.6964E-03 -1.8665E-02
  538  6.5784E-02  9.0387E-03 -1.8560E-02
  539  6.6240E-02  3.5919E-03 -9.6779E-03
  540  9.1859E-02 -7.1658E-03 -1.2383E-02
  541  9.0868E-02 -7.9211E-03 -1.3230E-02
  542  6.6056E-02  2.5515E-03 -1.0195E-02
  543  6.6113E-02  6.7898E-03 -1.3942E-02
  544  9.2306E-02 -3.7714E-03 -1.5104E-02
  545  9.1060E-02 -4.8087E-03 -1.6107E-02
  546  6.5900E-02  5.8001E-03 -1.4421E-02
  547  7.8818E-02  4.6145E-04 -1.0183E-02
  548  9.1359E-02 -7.5149E-03 -1.2836E-02
  549  7.8285E-02 -3.7984E-04 -1.0846E-02
  550  6.6149E-02  3.0748E-03 -9.9370E-03
  551  9.0127E-02 -7.0914E-04 -2.7147E-02
  552  8.9773E-02 -3.8162E-03 -2.0322E-02
  553  6.5255E-02  7.4770E-03 -1.9206E-02
  554  9.0987E-02  4.9267E-04 -2.6622E-02
  555  7.7801E-02  8.2485E-03 -2.7894E-02
  556  8.9994E-02 -2.2700E-03 -2.3779E-02
  557  6.5178E-02  9.9099E-03 -2.3556E-02
  558  9.0505E-02 -3.0259E-03 -1.9890E-02
  559  7.7973E-02  4.4314E-03 -1.9265E-02
  560  6.5465E-02  8.0049E-03 -1.9003E-02
  561  8.9848E-02 -8.8568E-03 -1.3955E-02
  562  6.5859E-02  1.5265E-03 -1.0734E-02
  563  8.9814E-02 -6.0080E-03 -1.6987E-02
  564  6.5542E-02  4.7747E-03 -1.4862E-02
  565  9.0356E-02 -8.3687E-03 -1.3608E-02
  566  7.7803E-02 -1.3392E-03 -1.1406E-02
  567  6.5957E-02  2.0410E-03 -1.0462E-02
  568 -4.3623E-02 -5.6506E-02 -1.0262E-01
  569 -4.4047E-02 -5.4862E-02 -1.0303E-01
  570 -3.7285E-02 -4.2558E-02 -9.2332E-02
  571 -3.7251E-02 -4.4567E-02 -9.1870E-02
  572 -4.2725E-02 -5.6391E-02 -1.0331E-01
  573 -4.3206E-02 -5.4809E-02 -1.0370E-01
  574 -3.6077E-02 -4.2607E-02 -9.3077E-02
  575 -3.5950E-02 -4.4474E-02 -9.2655E-02
  576 -4.3851E-02 -5.5697E-02 -1.0283E-01
  577 -4.0485E-02 -4.8692E-02 -9.7605E-02
  578 -3.7277E-02 -4.3562E-02 -9.2095E-02
  579 -4.0280E-02 -5.0435E-02 -9.7235E-02
  580 -4.4321E-02 -5.2996E-02 -1.0336E-01
  581 -3.7218E-02 -4.0428E-02 -9.2845E-02
  582 -4.3650E-02 -5.3039E-02 -1.0406E-01
  583 -3.6324E-02 -4.0637E-02 -9.3541E-02
  584 -4.4169E-02 -5.3952E-02 -1.0319E-01
  585 -4.0644E-02 -4.6932E-02 -9.8032E-02
  586 -3.7222E-02 -4.1504E-02 -9.2568E-02
  587 -4.5407E-02 -5.6682E-02 -1.0141E-01
  588 -4.5734E-02 -5.4937E-02 -1.0191E-01
  589 -3.9709E-02 -4.2399E-02 -9.1065E-02
  590 -3.9783E-02 -4.4794E-02 -9.0409E-02
  591 -4.4521E-02 -5.6582E-02 -1.0202E-01
  592 -4.4862E-02 -5.4908E-02 -1.0244E-01
  593 -3.8483E-02 -4.2460E-02 -9.1684E-02
  594 -3.8536E-02 -4.4652E-02 -9.1145E-02
  595 -4.5605E-02 -5.5818E-02 -1.0167E-01
  596 -4.2433E-02 -4.8964E-02 -9.6204E-02
  597 -3.9779E-02 -4.3600E-02 -9.0726E-02
  598 -4.2269E-02 -5.0895E-02 -9.5679E-02
  599 -4.5563E-02 -5.3019E-02 -1.0230E-01
  600 -3.9006E-02 -3.9859E-02 -9.1897E-02
  601 -4.4953E-02 -5.3008E-02 -1.0280E-01
  602 -3.8115E-02 -4.0184E-02 -9.2293E-02
  603 -4.5748E-02 -5.3998E-02 -1.0209E-01
  604 -4.2018E-02 -4.6968E-02 -9.6877E-02
  605 -3.9504E-02 -4.1154E-02 -9.1439E-02
  606 -3.1167E-02 -3.0090E-02 -8.2267E-02
  607 -3.1641E-02 -3.2809E-02 -8.1590E-02
  608 -2.9321E-02 -3.0896E-02 -8.2800E-02
  609 -2.9597E-02 -3.3374E-02 -8.2156E-02
  610 -3.4333E-02 -3.6241E-02 -8.7285E-02
  611 -3.1437E-02 -3.1461E-02 -8.1932E-02
  612 -3.4574E-02 -3.8534E-02 -8.6712E-02
  613 -3.0284E-02 -2.7246E-02 -8.2958E-02
  614 -2.9010E-02 -2.8213E-02 -8.3454E-02
  615 -3.3870E-02 -3.3888E-02 -8.7909E-02
  616 -3.0779E-02 -2.8717E-02 -8.2575E-02
  617 -3.4838E-02 -2.8000E-02 -8.1729E-02
  618 -3.5627E-02 -3.1499E-02 -8.0746E-02
  619 -3.2996E-02 -2.9135E-02 -8.1903E-02
  620 -3.3657E-02 -3.2147E-02 -8.1162E-02
  621 -3.7249E-02 -3.5341E-02 -8.6346E-02
  622 -3.5334E-02 -2.9758E-02 -8.1237E-02
  623 -3.7591E-02 -3.8240E-02 -8.5477E-02
  624 -3.2718E-02 -2.4602E-02 -8.2552E-02
  625 -3.1515E-02 -2.6037E-02 -8.2683E-02
  626 -3.5970E-02 -3.2356E-02 -8.7281E-02
  627 -3.4035E-02 -2.6280E-02 -8.2156E-02
  628 -9.1531E-03 -9.6970E-02 -5.6711E-02
  629 -1.7328E-02 -8.1218E-02 -5.7812E-02
  630 -2.0528E-02 -7.9634E-02 -6.8983E-02
  631 -1.1668E-02 -9.4828E-02 -7.0320E-02
  632 -7.1119E-03 -9.6005E-02 -5.5786E-02
  633 -1.4892E-02 -8.0731E-02 -5.8338E-02
  634 -1.7935E-02 -7.8494E-02 -6.9579E-02
  635 -9.8296E-03 -9.3304E-02 -7.0345E-02
  636 -1.3571E-02 -8.8722E-02 -5.7709E-02
  637 -1.8859E-02 -8.0633E-02 -6.3521E-02
  638 -1.6475E-02 -8.6829E-02 -7.0058E-02
  639 -9.3901E-03 -9.6818E-02 -6.3626E-02
  640 -8.1224E-03 -9.6501E-02 -5.6269E-02
  641 -1.6107E-02 -8.0973E-02 -5.8157E-02
  642 -1.9226E-02 -7.9063E-02 -6.9262E-02
  643 -1.0744E-02 -9.4061E-02 -7.0323E-02
  644 -1.1307E-02 -8.8194E-02 -5.7805E-02
  645 -1.6033E-02 -7.9779E-02 -6.4102E-02
  646 -1.4237E-02 -8.5488E-02 -7.0359E-02
  647 -7.3665E-03 -9.5559E-02 -6.3155E-02
  648 -2.8130E-02 -7.2283E-02 -7.8558E-02
  649 -2.2072E-02 -8.6179E-02 -8.2938E-02
  650 -2.5629E-02 -7.1049E-02 -7.9702E-02
  651 -2.0300E-02 -8.4502E-02 -8.3742E-02
  652 -2.4173E-02 -7.6251E-02 -7.3860E-02
  653 -2.5494E-02 -7.9062E-02 -8.0925E-02
  654 -1.6173E-02 -9.1091E-02 -7.6880E-02
  655 -2.6879E-02 -7.1663E-02 -7.9134E-02
  656 -2.1184E-02 -8.5334E-02 -8.3345E-02
  657 -2.1572E-02 -7.4997E-02 -7.4788E-02
  658 -2.3331E-02 -7.7547E-02 -8.1931E-02
  659 -1.4363E-02 -8.9433E-02 -7.7322E-02
  660 -3.6132E-02 -6.0771E-02 -8.6009E-02
  661 -3.5377E-02 -7.3537E-02 -9.3497E-02
  662 -3.3754E-02 -5.9951E-02 -8.7522E-02
  663 -3.3595E-02 -7.2236E-02 -9.4731E-02
  664 -3.2416E-02 -6.6729E-02 -8.2460E-02
  665 -3.6056E-02 -6.6969E-02 -8.9945E-02
  666 -2.8770E-02 -8.0279E-02 -8.8497E-02
  667 -3.4944E-02 -6.0358E-02 -8.6761E-02
  668 -3.4487E-02 -7.2878E-02 -9.4116E-02
  669 -2.9976E-02 -6.5652E-02 -8.3833E-02
  670 -3.3993E-02 -6.5875E-02 -9.1375E-02
  671 -2.6977E-02 -7.8745E-02 -8.9525E-02
  672 -3.8758E-02 -5.2873E-02 -8.8269E-02
  673 -4.1393E-02 -6.5568E-02 -9.7988E-02
  674 -3.6414E-02 -5.2331E-02 -8.9881E-02
  675 -3.9643E-02 -6.4783E-02 -9.9348E-02
  676 -2.4681E-02 -6.6787E-02 -5.6903E-02
  677 -2.5726E-02 -6.9430E-02 -6.7147E-02
  678 -2.0445E-02 -6.6099E-02 -5.7329E-02
  679 -2.2218E-02 -6.8590E-02 -6.7836E-02
  680 -2.0981E-02 -7.3877E-02 -5.7371E-02
  681 -2.5347E-02 -6.7982E-02 -6.2142E-02
  682 -2.3357E-02 -7.4515E-02 -6.8118E-02
  683 -2.2552E-02 -6.6380E-02 -5.7220E-02
  684 -2.3975E-02 -6.9004E-02 -6.7473E-02
  685 -1.7944E-02 -7.3290E-02 -5.7941E-02
  686 -2.1195E-02 -6.7270E-02 -6.2657E-02
  687 -2.0255E-02 -7.3477E-02 -6.8797E-02
  688 -3.1355E-02 -6.1587E-02 -7.4568E-02
  689 -2.7992E-02 -6.0906E-02 -7.5790E-02
  690 -2.8481E-02 -6.5710E-02 -7.0914E-02
  691 -2.9954E-02 -6.6892E-02 -7.6587E-02
  692 -2.9674E-02 -6.1240E-02 -7.5186E-02
  693 -2.5124E-02 -6.4895E-02 -7.1888E-02
  694 -2.7010E-02 -6.5913E-02 -7.7784E-02
  695 -3.5830E-02 -5.1572E-02 -8.0394E-02
  696 -3.2690E-02 -5.1372E-02 -8.1733E-02
  697 -3.3836E-02 -5.6694E-02 -7.7544E-02
  698 -3.6067E-02 -5.6171E-02 -8.3147E-02
  699 -3.4263E-02 -5.1467E-02 -8.1060E-02
  700 -3.0594E-02 -5.6245E-02 -7.8843E-02
  701 -3.3293E-02 -5.5643E-02 -8.4589E-02
  702 -3.6463E-02 -4.1662E-02 -8.0513E-02
  703 -3.2887E-02 -4.2114E-02 -8.1702E-02
  704 -3.3092E-02 -5.1676E-02 -7.1451E-02
  705 -2.8892E-02 -5.1707E-02 -7.2621E-02
  706 -2.9281E-02 -6.0007E-02 -6.5112E-02
  707 -3.2286E-02 -5.6676E-02 -7.2955E-02
  708 -3.0999E-02 -5.1696E-02 -7.2007E-02
  709 -2.4760E-02 -5.9648E-02 -6.5944E-02
  710 -2.8551E-02 -5.6327E-02 -7.4169E-02
  711 -3.5410E-02 -4.2049E-02 -7.6622E-02
  712 -3.1393E-02 -4.2621E-02 -7.7813E-02
  713 -5.1802E-03 -9.4758E-02 -5.4657E-02